LAMMPS data file via write_data, version 28 Mar 2023, timestep = 1600010, units = metal

384 atoms
2 atom types

-0.3118095840130257 15.311809584013066 xlo xhi
-0.3118095840130257 15.311809584013066 ylo yhi
-0.3118095840130257 15.311809584013066 zlo zhi

Masses

1 15.9994
2 1.00794

Atoms # atomic

123 1 1.6577840618043451 1.5280174592471731 1.129492172609398 1 1 0
33 1 2.5794860242011763 3.8114387931949523 2.0885587671841375 0 1 0
194 2 3.251476169526218 3.1726976786371273 2.4722604995874646 0 1 0
193 2 1.7542193043799044 3.3810513277912126 1.7561972454094916 0 1 0
136 2 1.8106935174797072 3.9516310202215017 3.776845298831904 0 0 0
236 2 4.641101472786032 2.9600626453450203 4.038166617098259 0 1 0
79 1 4.698182393648254 3.8580916282821507 0.2582098677400041 0 0 1
286 2 4.057759729218094 3.8328950459222657 1.0606041732553129 0 0 1
202 2 1.5062901667200406 0.044001981564362136 2.084030448340367 1 1 0
54 1 4.396203278118605 2.371664729803591 3.2872949584919615 0 1 0
373 2 0.8441458395127055 1.5463849832618504 0.605454812579993 1 1 0
374 2 2.3980365262582732 1.383073274187084 0.4782417433315652 1 1 0
77 1 6.512404802711641 0.8980827384234416 1.4485195818950765 0 0 1
309 2 7.1674428056821275 3.9394354234757794 3.6372983531187213 0 0 1
281 2 6.964540367054722 1.3398748884598635 0.7251404499808398 0 0 1
81 1 8.784303817649043 1.2642470131425465 2.885693041759618 0 0 1
289 2 7.907358544775337 0.9843759840283297 2.4196428455333994 0 0 1
91 1 7.9303895857339155 3.8304001529557468 3.0994436289644356 0 0 1
107 1 7.386057941199718 3.878934818422115 0.612738509374665 0 0 1
290 2 8.425354811196485 2.0855391119473845 3.235216601566889 0 0 1
235 2 5.109395351157198 1.8178083527030333 2.9510844068697333 0 1 0
310 2 7.689639838736945 3.7742458091191375 2.123894232218725 0 0 1
341 2 6.474104290413923 3.8919839649997616 0.3069244782225726 0 0 1
342 2 7.890795253932343 4.742935937944826 0.4743073890311974 0 0 1
233 2 8.36481681227783 -0.2918622784448708 3.4661166690995584 0 1 0
282 2 6.228078654321826 -0.016894356989072268 1.147812069192572 0 0 1
97 1 6.006579920044011 4.124689412805106 4.964147115735102 0 0 0
372 2 10.437584013467948 0.8941159501039795 2.5287457475136668 0 1 1
139 2 10.67253057119111 0.20182303008462188 0.7657733219418881 0 0 1
122 1 11.417160818165087 0.6890632584838396 2.3702137745223544 0 1 1
127 1 12.993650142456271 3.742889976204716 4.4423710543667045 0 1 1
366 2 13.292085837068981 3.8337821164836807 2.1960511265503992 0 0 0
371 2 11.833383953927395 1.4581594606949022 2.0506382077005965 0 1 1
119 1 12.970991097970106 3.2147593304901196 1.5699839241349072 0 0 0
365 2 12.348178304663076 3.694305106127433 0.9721128025796488 0 0 0
287 2 14.262307568169597 2.203607057382814 0.8619117284251254 -1 0 1
295 2 12.264469594236605 0.08730251629748792 4.0799254846955755 0 0 1
381 2 12.966568453911798 3.1116731627714795 5.238204344619262 0 1 1
80 1 14.631840621486766 1.5308079220962152 0.2600332691825952 -1 0 1
211 2 13.698095181151018 0.10901560905290097 0.3356811608763387 -1 1 0
145 2 3.095670413612135 5.459779663699483 2.7824276183689793 -1 0 0
9 1 3.3230520296963917 6.30372664924101 3.2058885227676317 -1 0 0
316 2 1.807016774578412 6.948897382651245 2.0170469549307013 1 0 1
94 1 1.063781041570004 7.505277426911264 1.7071118675774408 1 0 1
315 2 1.1655270674336609 7.506225483105712 0.6846069897928029 1 0 1
146 2 3.6051790334910554 6.193369634408236 4.099133177057032 -1 0 0
205 2 0.6607948425865932 9.13179871289627 1.8570328138319394 0 0 0
39 1 0.20763691153005748 9.922579931980703 2.1881778078964267 0 0 0
154 2 14.922807490571468 6.410700130619621 4.601469362110761 -1 0 0
180 2 0.0016407127991904247 8.816501374070604 4.037960844213076 1 0 0
26 1 -0.28253610421620223 8.229666402544161 4.812222120612592 1 0 0
13 1 15.062739594410722 5.43362604235805 4.663899168077229 -1 0 0
148 2 4.541848219031654 7.797954163528392 2.5309009837186527 0 0 0
147 2 5.089953997746256 9.054890622906651 1.7622202327008942 0 0 0
10 1 5.307352956181723 8.376881267501375 2.369908969315671 0 0 0
255 2 7.918020448154212 7.692796310879962 0.6043334374344194 0 0 0
64 1 7.947488313580966 8.554642386399639 1.096967612560975 0 0 0
256 2 7.178348183414834 8.74025088136429 1.6346433414916344 0 0 0
128 1 4.932883265757138 10.232623222047248 0.48190814339166 0 0 1
334 2 6.385312056526904 8.127849078714878 4.021120539086035 0 0 0
86 1 8.261164193833192 6.293322161711869 15.21822991774454 0 0 0
383 2 5.484434182921746 10.76963310554142 1.0708304719830488 0 0 1
103 1 6.922371364556654 8.322431021066034 4.802637815324629 0 0 0
382 2 12.09059006753542 4.059159456926886 4.295219545542585 0 1 1
358 2 9.391996239139417 8.099086900943611 2.001137075856365 0 0 0
149 2 13.438110132486397 6.678710166733836 2.5901853495061036 -1 0 0
179 2 14.414917418976497 8.44499982170786 5.045358259649085 0 0 0
11 1 13.78007978867825 6.3218798031933545 1.7080681233277897 -1 0 0
115 1 10.367870729665846 8.115452269734053 2.367530015929761 0 0 0
357 2 10.895732324926747 8.125011526566677 1.553298356460261 0 0 0
29 1 12.193179660950083 8.454197897409692 0.3817116722746634 0 0 0
185 2 12.568019248707671 9.37228918114231 0.3103452371654827 0 0 0
186 2 12.863386720662202 7.958272112505624 0.8246633508806971 0 0 0
158 2 11.582864796524579 7.275662386977814 3.483450455866343 -1 0 0
150 2 14.73554363531331 6.2533710879261735 1.7947075459191022 -1 0 0
153 2 14.189391728677158 4.919972847355738 4.5653563809593 -1 0 0
174 2 11.263627668480861 8.011659364807095 14.726782306841876 0 0 -1
206 2 0.6940776455350577 10.390989915095588 2.8731207806375756 0 0 0
92 1 3.453337787286066 12.724478726956342 2.7215383914344646 0 -1 0
214 2 0.2284836343903106 14.979467096140475 4.131450181673213 0 0 -1
37 1 1.2617428080396746 14.807429484888534 2.5721652997618394 1 0 0
201 2 2.077924723777136 14.341124056917927 2.561745303325735 1 0 0
34 1 3.3197579874212293 13.343158169280535 0.06771468612672366 0 0 0
195 2 3.150374228632976 12.641196489851893 14.975723152070913 0 0 -1
196 2 3.167760514002633 12.956627817423673 0.9838878466412657 0 0 0
311 2 2.7811953260347737 12.23447248690033 3.341418004001937 0 -1 0
312 2 4.175118928014703 12.10802251546031 2.657223309702095 0 -1 0
260 2 4.759456500138199 14.007733759601656 3.2628112774446443 0 -1 0
66 1 5.262480724501828 14.761914187259347 3.6240070256685843 0 -1 0
43 1 -0.12388727050292947 15.190482860059461 5.010644963308166 0 0 -1
340 2 1.7020346027406998 14.369608770723104 14.772368713666602 0 0 -1
306 2 0.10842453976586586 11.229327455116461 1.2217897022635735 0 0 1
305 2 0.2742480386662781 12.771928895875611 0.6194199381030906 0 0 1
339 2 0.5915631883048227 15.069257727485542 0.018250945532904184 0 0 0
182 2 2.3617328467293337 10.867466555181153 4.79517250338181 0 -1 0
27 1 1.6652024762267177 11.260710253322973 4.206060640007859 0 -1 0
239 2 8.607423375633115 10.312044234008379 0.5769457078915898 0 0 0
133 2 7.742206965484063 10.075454077496438 4.248887074406473 0 -1 0
168 2 4.859766533911867 13.825026907428896 0.5281989282748428 1 -1 1
56 1 8.745798986261569 10.851682217051305 -0.2132918588700683 0 0 0
240 2 8.695374518742401 11.78827716588994 0.058359909229320994 0 0 0
20 1 5.832531947727156 14.003803005237842 0.5496541760662164 1 -1 1
353 2 8.71011279942886 13.45324857813769 1.9320421207435845 0 0 0
117 1 6.276959379212761 11.852442215696563 2.07137244094969 0 0 1
361 2 6.4873421327411664 12.69373977952305 1.545178445432572 0 0 1
362 2 7.040286740123996 11.682244640836991 2.6780709957524813 0 0 1
134 2 8.99341692671889 10.722818487076985 3.3474510478298427 0 -1 0
3 1 8.201151799656785 10.851309313015658 3.9151790356367595 0 -1 0
53 1 8.108781674209666 14.428840239264016 3.4052382234973306 0 0 0
259 2 6.163661865447065 14.39150171795583 3.8125024431842993 0 -1 0
113 1 9.05833872750338 13.017260603751804 1.11862752364787 0 0 0
354 2 8.995931259889439 13.77996229234919 0.5203816526818398 0 0 0
234 2 8.347567429721458 14.006605838980583 4.250978383058046 0 0 0
248 2 10.795696356678334 9.705389432144493 2.724486182416158 0 -1 0
213 2 14.537573016032905 15.207641883456915 4.935910069312509 -1 0 -1
296 2 12.03339075802161 14.643516704426691 5.150539773397967 0 -1 1
84 1 12.668299582974026 15.279902723701383 4.826646723674042 0 -1 1
60 1 10.63498762878709 10.57307374342744 3.1459411775144117 0 -1 0
89 1 0.021421306736277013 11.838941258343038 0.4242738756799962 0 0 1
377 2 12.412164938479002 11.510476552194056 0.5512606682933014 0 0 1
247 2 11.26324249008038 11.240273344218021 2.7961059044401395 0 -1 0
265 2 10.834162836031322 13.03394985127575 1.1091396201757078 0 -1 1
69 1 11.668917084059125 12.759803223583777 1.5126044585881713 0 -1 1
266 2 12.249561162343817 13.57875644572572 1.4310290402833294 0 -1 1
378 2 13.930122415455486 11.279352659699601 0.18709292231123287 0 0 1
125 1 13.036790948881457 10.880610281782022 0.04614038323208902 0 0 1
42 1 13.22855314257211 14.83616155302898 0.4395307330048094 -1 0 0
212 2 13.44433094478688 14.338635986292847 15.279034989786934 -1 0 -1
351 2 0.9608787987880405 1.0527145319291356 5.338771452631307 0 1 0
135 2 0.78877082658531 4.729274350572008 4.53376862780975 0 0 0
4 1 1.5585912454639943 4.111029559493224 4.685338610425824 0 0 0
352 2 1.4801201582830936 2.4921266177267594 5.405434512562989 0 1 0
112 1 1.6654251189026774 1.6083898328119657 5.770480637077185 0 1 0
241 2 1.4228244545367434 1.6833709381695732 7.504694186392469 0 1 0
242 2 1.6099831904479551 2.6567286888892507 8.73321556886366 0 1 0
57 1 1.5386209258436092 1.7361025758849515 8.488554105248298 0 1 0
263 2 1.341370439136641 0.6624193157398613 9.629682188460986 0 0 0
355 2 3.285327061271667 0.7095930409955182 5.894671229159474 1 1 0
293 2 1.7538132613032515 4.526951682699894 9.909459564624374 0 0 0
83 1 1.9758587709950328 4.564172440899465 8.943460885861164 0 0 0
114 1 4.112349720249218 0.21382894557257037 6.024367237978233 1 1 0
162 2 5.316178766130256 3.634837996206636 11.091135950071138 0 0 0
294 2 1.1155220972072915 4.789784004642062 8.542533316786951 0 0 0
321 2 5.357873690403688 4.808080569526906 5.125325412561453 0 0 0
85 1 10.162324638734525 4.442466651187203 4.6702407194184525 0 0 1
322 2 5.969379181988952 3.5357472816000985 5.717894481752531 0 0 0
124 1 7.748824797947472 0.7146436182554348 6.867524684282231 0 1 0
376 2 8.602352318137015 1.2345635513245339 6.919558920228508 0 1 0
159 2 9.706693512592341 3.062018454518351 7.62541367926307 -1 0 0
16 1 9.835617671190445 2.6491859960822057 6.795064800146794 -1 0 0
320 2 6.808127004649453 3.051782180298301 9.529330849400626 0 0 0
96 1 6.165626074548188 2.3473859810925517 9.61579657552528 0 0 0
160 2 9.961858869171664 3.3530481313469664 6.078096993552726 -1 0 0
319 2 5.701230418799356 2.570752401384356 8.684820068426358 0 0 0
375 2 7.778842881274662 0.12268995792584936 7.665468202268946 0 1 0
262 2 4.843005994579762 1.754023098582664 6.761647586961971 0 0 0
261 2 6.35085155860768 1.6027171960592592 6.9085718094292075 0 0 0
67 1 5.622019231333065 2.2694195979216456 6.970387078304289 0 0 0
70 1 8.106744958269697 4.344923711175614 9.297687226591897 0 0 0
268 2 8.592075430050816 4.875081404845105 8.558338643760457 0 0 0
183 2 6.328377279542529 0.7346993568133007 10.264999078604593 0 0 -1
28 1 6.173652771578923 -0.09454501434930335 10.724963595134632 0 0 -1
184 2 5.219718099451365 -0.301306340213646 10.649202245293573 0 0 -1
338 2 7.358400596774528 14.753814856124563 9.709821911648259 0 0 0
314 2 14.488486290409785 3.8519560591228235 7.855049706076019 -1 0 0
303 2 10.850123250784044 14.381475207244659 10.464224516518168 0 -1 0
88 1 10.116775127861438 15.04016258962859 10.676577040048091 0 -1 0
93 1 13.744225486464618 3.345445639267177 8.322572524322993 -1 0 0
172 2 12.696095669987308 1.1840116497556836 5.890580077466853 0 0 0
22 1 12.645722764737108 2.0965243603834907 6.284869309642376 0 0 0
313 2 13.425179380252736 2.636570048104473 7.765211114982141 -1 0 0
171 2 11.70875302626657 2.1062967116171976 6.546786672764809 0 0 0
199 2 11.651249057717997 14.856894618058892 8.358316684558186 0 0 0
36 1 11.142606006248482 14.544763243171264 7.592351098075358 0 0 0
379 2 13.825862920219016 3.4787259531630554 9.960279752305187 0 0 0
190 2 3.1022115585562906 4.983122033282112 5.631967834097228 1 0 0
175 2 1.5772750106539428 7.8992691215858075 5.713398558831605 1 0 0
197 2 0.07209480952025382 5.372856330055853 6.527114794556083 0 1 0
189 2 3.167230777436596 6.413428726404331 5.980501259387212 1 0 0
31 1 3.7400571723649225 5.655332341641789 5.778389056052428 1 0 0
327 2 3.5805042695659015 7.580310472770139 10.065063939036364 0 0 0
35 1 -0.09679382775397805 5.371150433857112 7.469283770252898 0 1 0
24 1 2.2118956306587454 7.884719477404873 6.40809347334789 1 0 0
176 2 1.870507520682985 8.367413072882027 7.165731972201614 1 0 0
245 2 1.953322334991014 8.951724134973333 9.168533119720394 0 0 0
198 2 -0.24535637141879363 6.340242998161563 7.617367950212757 0 1 0
229 2 3.6554773349126917 5.64787467211378 8.88705485050864 1 0 -1
51 1 4.433788878829728 6.103780610890079 9.265529552217274 1 0 -1
350 2 3.726118422969459 9.437621171786045 6.279679906089085 0 0 0
59 1 1.221072832076057 9.191964146861508 8.498464360499828 0 0 0
349 2 4.150804347665857 10.905698570323818 6.581715350436751 0 0 0
258 2 -0.26779655508665806 8.440719217631315 8.55251810469058 0 -1 0
100 1 3.088017903415525 8.31472036254451 10.411967837796485 0 0 0
298 2 9.515957515807667 4.309033625979381 3.951048866974599 0 0 1
297 2 9.971331753621769 5.303789707476003 5.022157052301333 0 0 1
230 2 4.530283266935326 5.656875755791904 10.112078523218763 1 0 -1
283 2 5.284238864644723 6.953921759666243 7.957335595937066 0 -1 0
333 2 6.3572608191971005 8.22802323182971 5.6535104619815915 0 0 0
99 1 9.448423376133565 7.224018108125407 5.610936465524562 0 0 0
325 2 8.544145073479129 7.168088068524172 5.284646828979586 0 0 0
14 1 9.984558224213888 5.9761249048285165 7.921206545173477 0 -1 0
156 2 9.58878978853944 6.533614688298334 7.206724302690939 0 -1 0
78 1 5.229256502436887 7.740213512074701 7.34722469595237 0 -1 0
326 2 9.763158484623748 8.117790457773157 5.6209699424408575 0 0 0
15 1 12.4055505769784 7.194809206000571 3.9657610165307675 -1 0 0
251 2 10.420371461254177 6.656810869392657 9.626631455035476 0 0 0
218 2 13.128697089654192 6.092721876310567 6.708308864617742 0 1 0
155 2 10.876174450293995 5.937858918788495 7.616972621610912 0 -1 0
45 1 12.41720763310952 6.759493610830564 6.793187686563466 0 1 0
217 2 12.874977347910495 7.301254052861442 7.444257694490218 0 1 0
177 2 11.43017296429117 9.712131851216103 6.20698372669286 0 0 0
157 2 12.10137912837805 7.065472344579122 4.810500828096363 -1 0 0
7 1 13.146146731752847 9.785112860911543 5.921234194200031 -1 -1 0
141 2 13.59220300405941 9.975653933074689 6.7647286363686145 -1 -1 0
257 2 14.200777182333315 7.926422646324318 9.359924426606494 -1 -1 0
65 1 14.591880399597684 7.809683928319401 8.487699533979288 -1 -1 0
25 1 10.45416738371653 9.690359613501727 5.977730349287125 0 0 0
111 1 3.6699424572196406 10.327279525559195 5.96102787289214 0 0 0
209 2 2.0916263704183913 12.560286333816823 7.873694985998623 0 0 0
41 1 1.2936283543605238 11.976126193400162 7.984603874669372 0 0 0
210 2 0.9016677967170077 12.226859199779664 8.803672513771243 0 0 0
356 2 4.522631146985238 -0.1059610543572031 5.1871990808711566 1 1 0
246 2 1.2800610001696493 10.15738579963751 8.304700875174305 0 0 0
143 2 3.6778125221671383 14.096353069146907 8.74879622970596 0 -1 0
8 1 3.4856564217243275 13.68484048590841 7.876805530861742 0 -1 0
144 2 3.539386425707426 14.383549727039536 7.2786515976042185 0 -1 0
270 2 0.006029869450974501 12.173508462067197 6.562867253680193 0 -1 0
272 2 4.650274562635509 12.257392723823497 7.874601394791411 0 -1 0
181 2 1.028376110084474 11.818916046934511 4.674071558924067 0 -1 0
284 2 5.697376602967249 8.443493453204976 7.794011057510301 0 -1 0
254 2 4.943636812321962 10.814304401263072 9.469120525864707 1 0 0
191 2 7.735468076114334 13.15768814801509 8.338419410212634 0 -1 0
32 1 7.6407488274355515 12.366685667390996 7.751010833804993 0 -1 0
48 1 8.990013478603071 12.837172417957365 5.446748024576948 0 0 0
224 2 8.951453564534226 12.010849362607114 4.936141683077526 0 0 0
192 2 8.061040755419707 12.61164561671622 6.879339622700384 0 -1 0
72 1 5.137584415943388 11.42382310341921 7.956756067428297 0 -1 0
271 2 6.04760199875606 11.684711847720745 7.841865155587429 0 -1 0
219 2 8.703638532145696 11.22308962328717 8.318887430099704 0 0 0
46 1 9.49868965956487 10.601433072281022 8.408229510067173 0 0 0
223 2 9.871150739946625 13.095515946494757 5.573704881615842 0 0 0
337 2 8.952140771363183 14.88570179127418 9.644277872268507 0 0 0
105 1 8.108193264648484 14.660797070749261 9.11244922772563 0 0 0
142 2 13.215209196320338 10.545516111833809 5.325722149707626 -1 -1 0
269 2 -0.08638739824832298 13.502553928717877 5.644937292920129 0 -1 0
220 2 9.677285761409024 10.293821400138427 7.5151521831825105 0 0 0
178 2 10.348590315719722 10.12918959114835 5.112802131985725 0 0 0
200 2 11.802038618788874 13.91309463259444 7.238121825997839 0 0 0
71 1 15.25742159081066 12.582714572551843 5.713936391372863 -1 -1 0
238 2 11.18412384946128 11.209536344651283 8.493690649311041 0 0 0
76 1 12.433622336937887 12.712607499753272 5.997405950104321 -1 -1 0
237 2 12.533867530172422 11.041736660040776 9.221282511235163 0 0 0
280 2 12.47395683502581 12.18147098136366 6.790747114194929 -1 -1 0
279 2 13.325011293479019 12.96600746512767 5.769173664308488 -1 -1 0
55 1 12.131585410443094 11.452289020299226 8.45349274212257 0 0 0
68 1 1.2956771376676706 -0.025143742484731946 10.34798172221156 0 0 0
285 2 4.5969495832842675 2.9629462121004724 -0.15609644081500404 0 0 1
49 1 4.0482931910555315 1.5171595858715758 14.614947395885192 1 1 -1
225 2 4.742508058929215 0.928235569323308 14.25745097506044 1 1 -1
226 2 3.488880536143385 1.8119545380231918 13.897743958122927 1 1 -1
302 2 2.698941474559796 1.5243454535497374 11.844987059666686 1 0 0
87 1 2.756939639957222 2.330705816205936 12.321117656399903 1 0 0
301 2 2.0718855291423948 2.9260878404712987 11.94491415069604 1 0 0
161 2 3.89126926340309 3.515340544285802 11.555955875458956 0 0 0
17 1 4.604589258891956 4.172488765383202 11.410635230750124 0 0 0
74 1 1.073078797352437 4.3550839439141535 11.68357516831799 0 0 0
132 2 0.0945932770704983 3.636969077488949 13.62638571434346 0 0 -1
2 1 14.887511846929176 3.66366692705517 14.107887008968351 -1 0 -1
277 2 0.19230076727055678 0.5695215473961185 11.825348004340228 0 0 0
276 2 0.14232191213644346 4.184456246070285 11.41069164307018 0 0 0
165 2 7.802555600681667 2.564477489162239 14.934633331445909 1 1 -1
140 2 9.473671509785142 0.6528486819369241 -0.06329080103461956 0 0 1
6 1 10.156168222973509 -0.024419360328265027 -0.0179536723265607 0 0 1
267 2 7.991681993331452 4.932572967187865 10.04290542793121 0 0 0
19 1 8.275425970468678 1.8954347963959646 14.44550550977253 1 1 -1
38 1 6.416177432648823 0.33551606718199434 13.389836474485524 0 1 -1
204 2 6.205341755957831 0.42541110982147057 12.426746050749014 0 1 -1
307 2 9.707274003136668 2.8437611172236448 13.326558020935845 0 0 0
90 1 9.923681364735824 3.7361295590770283 12.988896117593022 0 0 0
166 2 7.582475300106265 1.21915896701633 14.131505529542064 1 1 -1
291 2 9.338340883416798 3.309290489225073 9.832565959620045 0 0 0
203 2 6.396802115371473 14.926099813581683 13.449066568334274 0 0 -1
304 2 10.511837105026022 -0.2068633853210381 11.477992955554129 0 0 0
292 2 10.175375536197642 1.8805520279436592 10.111874324463763 0 0 0
308 2 10.312925999969508 3.499324976599101 12.112908660854334 0 0 0
82 1 10.171471844143433 2.86217385035678 10.207437471231092 0 0 0
126 1 14.153573169663321 3.5927319598655703 10.894063016617675 0 0 0
288 2 14.796087278913767 2.0247630415108064 15.101330689797724 -1 0 0
231 2 10.74830902057635 -0.06549620964527994 13.766078477221324 0 1 -1
75 1 -0.10390111029357996 0.899317690518312 12.69575651530322 0 0 0
380 2 13.5184248161092 3.1733022949218337 11.505605866585398 0 0 0
61 1 11.495694412332497 4.510890791135928 15.21481415285989 0 0 -1
232 2 11.781239159669674 0.8088528035513247 13.077864246479823 0 1 -1
324 2 13.870979817414884 1.599881197513209 12.70081194546399 0 0 0
98 1 13.040937934361637 2.1159406617097654 12.638941222307377 0 0 0
323 2 13.085443679093398 2.744157213890563 13.366842415800154 0 0 0
250 2 11.189602040910287 4.326478698722294 14.256393354437229 0 0 -1
52 1 11.421562765357805 -0.09698692716151144 13.067222642669176 0 1 -1
249 2 11.565307840626467 5.402734370062472 -0.2883223698834381 0 0 0
328 2 3.76188250927437 9.056521618598232 10.33768775094298 0 0 0
187 2 2.5642788198118316 7.413490127679054 12.010888034905655 1 -1 0
30 1 2.2981421043632686 6.675652266055018 12.652024845425316 1 -1 0
274 2 1.408586843103934 7.209090594506971 13.860664191544362 0 0 0
130 2 4.697032762054451 5.062409331301828 14.547028417126068 0 -1 0
275 2 1.108788160789913 5.19843387267114 12.129677303239852 0 0 0
188 2 3.14155651282517 6.4192965437307095 13.093502654395895 1 -1 0
151 2 0.7752401322089235 9.183080058525722 14.244317302314197 0 0 -1
1 1 4.576787007824481 5.5012341486361525 13.694414581087226 0 -1 0
129 2 4.529156601144087 4.876756500244118 12.936918755889703 0 -1 0
73 1 0.8073682619163276 7.5938386300138765 14.562185741741228 0 0 0
131 2 14.688581592005189 4.58994753866717 14.31625287272119 -1 0 -1
273 2 -0.1078603120279264 7.213821490534178 14.441737603284778 0 0 0
12 1 0.6923671469433155 10.19450735914537 14.11860298166338 0 0 -1
384 2 5.475239098184162 10.049979713468787 -0.2869491760030137 0 0 1
243 2 8.879534001226705 5.119233835638 12.164545795036979 0 1 0
58 1 8.695851438162574 5.898466876482918 11.616011365740292 0 1 0
244 2 8.030285240089675 6.407155268610039 12.1504911786839 0 1 0
252 2 10.260718992306973 6.462584180864852 11.057117733188722 0 0 0
347 2 5.929653843159659 6.533124164555902 13.314249694645152 0 0 0
348 2 6.651313832085204 8.008039564918796 13.490185178411497 0 0 0
110 1 6.72524770441984 7.055671435249753 13.178268340625046 0 0 0
300 2 7.575675851136245 6.540002223296554 14.59903906963006 0 0 0
109 1 6.574548723941419 9.824289945527667 14.040897703525332 0 0 0
299 2 9.111759191608137 6.41377233408316 14.78817464639452 0 0 0
336 2 10.664442140154481 8.574032393457564 11.127596507029715 0 0 0
346 2 7.382936201734113 10.20178362295501 14.428737105794685 0 0 0
104 1 10.209604449236856 9.403897108218885 11.014211171143135 0 0 0
63 1 4.946383828349456 10.422295009307199 10.354593194858854 1 0 0
345 2 6.611810545488722 10.307139385268293 13.171141103133301 0 0 0
253 2 5.8763219604804355 10.176908186912957 10.590396075906988 1 0 0
138 2 13.906918011946985 10.726933824111132 11.36470800335863 -1 -1 -1
108 1 13.589997676951175 6.174673069777595 11.354081778555006 0 0 0
343 2 13.774482478827323 5.254025019895583 11.17398516227151 0 0 0
344 2 12.640705508548585 6.359701718674803 11.164083882922384 0 0 0
62 1 10.92090558186015 6.715604951166103 10.44602764807846 0 0 0
23 1 10.712914379966712 7.4087106991634 14.239947246115364 0 0 -1
173 2 10.9921279752386 7.529895094728359 13.35136408094165 0 0 -1
369 2 13.950588319752057 6.5575477075224295 12.899880444127739 -1 0 0
121 1 14.094841519542229 6.5623168618847725 13.887416310546783 -1 0 0
370 2 13.446171415824253 7.112504711852892 14.385740495004278 -1 0 0
5 1 14.004553726654148 11.053426366226677 10.429144738478634 -1 -1 -1
137 2 14.40075596636363 11.925226008782499 10.457499194278604 -1 -1 -1
364 2 3.6679950112670148 10.676654463274996 14.824134400499059 1 0 -1
118 1 3.1416967399764046 11.176876325242404 14.145084959303041 1 0 -1
363 2 2.2468080924253813 10.737505245911002 14.326142215711034 1 0 -1
106 1 0.7248074546466781 14.58932888491708 14.80928603527942 0 0 -1
264 2 0.817816913066143 14.775496192028584 10.057843979029222 0 -1 0
359 2 2.8560754347694863 14.80063406070716 10.606214398274336 0 0 0
21 1 -0.2779517234855065 13.596338555295397 10.264931865949848 1 -1 -1
152 2 0.3881150502952698 10.62877371138718 14.92337402419503 0 0 -1
116 1 3.820799179014058 14.504409733298491 10.483413619037428 0 0 0
331 2 0.33455107627923686 11.796545175454916 12.6004592377048 0 0 0
102 1 0.24781740792061646 12.733895050507371 12.669546854426198 0 0 0
332 2 0.24848986139500773 12.883902522904666 13.592446833631438 0 0 0
329 2 4.558084710084639 11.888184389283659 11.324302671151763 0 0 0
330 2 3.5637428281590027 12.074957276445563 12.534707532266403 0 0 0
101 1 4.276453470180502 12.564034171453823 12.017226973634447 0 0 0
360 2 3.9029269573934275 13.74171044752508 11.044874028761932 0 0 0
170 2 -0.07049584334048078 13.442211100917426 11.196559913180941 1 -1 -1
167 2 6.104617958343962 13.542074433240394 -0.2424074083743406 1 -1 1
335 2 10.213983516878297 9.585895183036161 10.069174999405437 0 0 0
228 2 6.026218873347527 12.6782456176126 13.24345794526139 1 0 -1
50 1 6.699280568422577 13.199949750186683 13.704091870375432 1 0 -1
227 2 7.5640095845674065 13.101692920843377 13.198540222811925 1 0 -1
163 2 8.362562148140228 9.809505573502296 10.98995196334749 1 0 -1
216 2 9.520129763473143 12.24169990976996 12.539175935429522 0 0 -1
44 1 8.807950066963159 12.770753960011856 12.078795313154789 0 0 -1
215 2 9.248374661785153 13.452716285602698 11.622048616678512 0 0 -1
18 1 7.5506168969946605 10.33808751207567 11.16687591241238 1 0 -1
164 2 7.91945832212384 11.262287285058974 11.311465987523228 1 0 -1
222 2 10.03251571627466 10.771052531693837 14.14081934448026 -1 0 0
367 2 12.50733876681793 12.806091967950405 9.606022570005617 0 0 0
278 2 0.26205807031290373 0.21629720189092438 13.322667284787233 0 0 0
169 2 14.410060625603972 13.815282687753221 10.162284452204027 0 -1 -1
317 2 14.430519394198658 9.588429636428156 13.24299660127636 0 0 1
120 1 12.406076675706377 13.573758228704804 10.192431711097477 0 0 0
47 1 10.544008653104925 10.993383002116925 13.357462936263712 -1 0 0
221 2 10.4954913756189 10.293349818273903 12.711753720472853 -1 0 0
368 2 12.53536925716806 13.311045533452159 11.141888811234349 0 0 0
95 1 13.56084272669099 9.516625046377015 12.896048302716459 0 0 1
207 2 12.37076904135954 14.09724888550421 13.09156679865399 0 0 0
40 1 12.673086561427084 13.190081468175272 12.832326085840418 0 0 0
208 2 12.184106813103416 12.523246402252859 13.366048595354695 0 0 0
318 2 13.018687889381283 10.033629168060425 13.469368484425406 0 0 1

Velocities

123 2.9177391648377844 1.688257623583182 -7.108428385363863
33 -1.0502482239540656 -6.256924514951369 -2.108632056728265
194 -5.816365492029622 26.99992233261123 -23.021708762148222
193 -1.7199085492444797 23.88767127197757 -4.821083139081794
136 9.163882945060546 5.273608946870597 10.621878959005837
236 17.881726368906275 -15.201089811900955 7.988091883072957
79 3.851373377332764 7.968590378994143 2.9406637010865198
286 -13.558389542001361 -7.812238996914837 -28.715946147536112
202 -38.97713622122112 -0.08345131212222356 -22.20108252247473
54 1.4389887142513713 -5.127552710446734 4.950549042574745
373 10.372751676574223 0.14504578614020283 -4.140248960592204
374 14.585329020912193 17.95251595487968 -0.7203502336464321
77 -0.026551568853167846 3.4917036526906027 7.248290640376714
309 23.641386785798115 26.08726438291547 -21.959813648803834
281 -25.097946386221267 -0.4579976195494991 -11.952702043099864
81 4.564921646471809 2.771800044526305 -3.3233537281580947
289 7.214521368074395 17.07432055892465 14.580579956581454
91 -6.719079809194666 2.2210346018341185 -0.6329508913105703
107 5.893218417297436 -1.130778553511995 -1.1078810274004145
290 17.24095908014323 19.505884652147 -11.586634386431971
235 -25.32306488709151 24.099747306986984 6.274322979433564
310 35.05924234202075 -7.313477704648332 -18.605627872345735
341 4.254254796210352 -2.7336563460125762 5.806083644468761
342 15.457739295846222 -3.8470963620577465 23.841064931288955
233 -1.7198799472131432 -2.384484707755671 -22.98896380391535
282 22.34532580512213 19.26631892575034 -12.856708541039968
97 0.509862825837516 -2.074083538759953 0.27046530565828825
372 27.86356788416152 -2.5628821688543626 2.6435591678752117
139 -16.458343831825754 10.213460838859898 -0.48348624307963295
122 -5.029272665093215 -1.279963252825482 9.328436009438999
127 -3.565931192943451 -9.688995224685018 -1.2067942132970177
366 -4.332585747538215 -12.679910313921406 -41.61710772067245
371 4.460453904344363 -15.73622276464691 -21.035653312708643
119 1.3449816463776918 0.9134919826669681 2.661042838367565
365 1.5495952595754166 16.561041841521284 12.754486507473345
287 -3.1731331695641307 14.490010577409869 -1.2993977538259323
295 -31.761890538992926 8.09201467092617 17.402394900000516
381 -17.71041175787884 -18.598747647608327 16.074275896594777
80 4.841658527831658 2.3062820436024065 1.845927860223527
211 1.7220052912520891 -11.910644751524087 18.167608807382443
145 4.358081486910424 14.759491893203398 16.08789306566907
9 -3.8529256745459426 4.554994626615476 -1.3913654611652164
316 -0.7883519336182504 31.054157163027128 0.6585635162053353
94 4.22378418598876 3.1655665572817253 2.268392375159151
315 -33.56913448659045 -1.0099475331320291 -6.6903332360057535
146 -38.71093563024718 -8.991565300929397 30.035072874262774
205 -17.108183586087332 -5.134836320628131 5.514405811493452
39 -1.2302784870333128 5.858101728711119 10.223598519475912
154 20.222393884144058 16.17102555761271 -8.189269250699656
180 21.022365927849076 23.753400303642167 33.097677838361804
26 5.925306596901044 0.07489308792475463 1.8381222786756626
13 -6.42182422969752 2.87187408162042 6.09569329272344
148 12.81565441540321 23.518475240239905 22.3712073798953
147 -7.138777474083981 -18.426377247957138 11.264616295055282
10 -5.345731556826466 -7.111503257942772 1.3983443587961597
255 -10.407509111181463 7.436266774770565 11.793668116401252
64 -2.9683024234617617 -0.5973236225895524 -0.21884353984929883
256 -9.218994936432738 12.004121795553058 -15.10444189281315
128 4.110337668521118 0.043626947473529666 -4.924645120552791
334 -5.95014000199583 -14.245637215270417 0.9918651103215382