ITEM: TIMESTEP
0
ITEM: NUMBER OF ATOMS
384
ITEM: BOX BOUNDS pp pp pp
-3.1180958401302572e-01 1.5311809584013066e+01
-3.1180958401302572e-01 1.5311809584013066e+01
-3.1180958401302572e-01 1.5311809584013066e+01
ITEM: ATOMS id type x y z
1 1 4.577 5.501 13.694
2 1 14.888 3.664 14.108
3 1 8.201 10.851 3.915
4 1 1.559 4.111 4.685
5 1 14.005 11.053 10.429
6 1 10.156 -0.024 -0.018
7 1 13.146 9.785 5.921
8 1 3.486 13.685 7.877
9 1 3.323 6.304 3.206
10 1 5.307 8.377 2.370
11 1 13.780 6.322 1.708
12 1 0.692 10.195 14.119
13 1 15.063 5.434 4.664
14 1 9.985 5.976 7.921
15 1 12.406 7.195 3.966
16 1 9.836 2.649 6.795
17 1 4.605 4.172 11.411
18 1 7.551 10.338 11.167
19 1 8.275 1.895 14.446
20 1 5.833 14.004 0.550
21 1 -0.278 13.596 10.265
22 1 12.646 2.097 6.285
23 1 10.713 7.409 14.240
24 1 2.212 7.885 6.408
25 1 10.454 9.690 5.978
26 1 -0.283 8.230 4.812
27 1 1.665 11.261 4.206
28 1 6.174 -0.095 10.725
29 1 12.193 8.454 0.382
30 1 2.298 6.676 12.652
31 1 3.740 5.655 5.778
32 1 7.641 12.367 7.751
33 1 2.579 3.811 2.089
34 1 3.320 13.343 0.068
35 1 -0.097 5.371 7.469
36 1 11.143 14.545 7.592
37 1 1.262 14.807 2.572
38 1 6.416 0.336 13.390
39 1 0.208 9.923 2.188
40 1 12.673 13.190 12.832
41 1 1.294 11.976 7.985
42 1 13.229 14.836 0.440
43 1 -0.124 15.190 5.011
44 1 8.808 12.771 12.079
45 1 12.417 6.759 6.793
46 1 9.499 10.601 8.408
47 1 10.544 10.993 13.357
48 1 8.990 12.837 5.447
49 1 4.048 1.517 14.615
50 1 6.699 13.200 13.704
51 1 4.434 6.104 9.266
52 1 11.422 -0.097 13.067
53 1 8.109 14.429 3.405
54 1 4.396 2.372 3.287
55 1 12.132 11.452 8.453
56 1 8.746 10.852 -0.213
57 1 1.539 1.736 8.489
58 1 8.696 5.898 11.616
59 1 1.221 9.192 8.498
60 1 10.635 10.573 3.146
61 1 11.496 4.511 15.215
62 1 10.921 6.716 10.446
63 1 4.946 10.422 10.355
64 1 7.947 8.555 1.097
65 1 14.592 7.810 8.488
66 1 5.262 14.762 3.624
67 1 5.622 2.269 6.970
68 1 1.296 -0.025 10.348
69 1 11.669 12.760 1.513
70 1 8.107 4.345 9.298
71 1 15.257 12.583 5.714
72 1 5.138 11.424 7.957
73 1 0.807 7.594 14.562
74 1 1.073 4.355 11.684
75 1 -0.104 0.899 12.696
76 1 12.434 12.713 5.997
77 1 6.512 0.898 1.449
78 1 5.229 7.740 7.347
79 1 4.698 3.858 0.258
80 1 14.632 1.531 0.260
81 1 8.784 1.264 2.886
82 1 10.171 2.862 10.207
83 1 1.976 4.564 8.943
84 1 12.668 15.280 4.827
85 1 10.162 4.442 4.670
86 1 8.261 6.293 15.218
87 1 2.757 2.331 12.321
88 1 10.117 15.040 10.677
89 1 0.021 11.839 0.424
90 1 9.924 3.736 12.989
91 1 7.930 3.830 3.099
92 1 3.453 12.724 2.722
93 1 13.744 3.345 8.323
94 1 1.064 7.505 1.707
95 1 13.561 9.517 12.896
96 1 6.166 2.347 9.616
97 1 6.007 4.125 4.964
98 1 13.041 2.116 12.639
99 1 9.448 7.224 5.611
100 1 3.088 8.315 10.412
101 1 4.276 12.564 12.017
102 1 0.248 12.734 12.670
103 1 6.922 8.322 4.803
104 1 10.210 9.404 11.014
105 1 8.108 14.661 9.112
106 1 0.725 14.589 14.809
107 1 7.386 3.879 0.613
108 1 13.590 6.175 11.354
109 1 6.575 9.824 14.041
110 1 6.725 7.056 13.178
111 1 3.670 10.327 5.961
112 1 1.665 1.608 5.770
113 1 9.058 13.017 1.119
114 1 4.112 0.214 6.024
115 1 10.368 8.115 2.368
116 1 3.821 14.504 10.483
117 1 6.277 11.852 2.071
118 1 3.142 11.177 14.145
119 1 12.971 3.215 1.570
120 1 12.406 13.574 10.192
121 1 14.095 6.562 13.887
122 1 11.417 0.689 2.370
123 1 1.658 1.528 1.129
124 1 7.749 0.715 6.868
125 1 13.037 10.881 0.046
126 1 14.154 3.593 10.894
127 1 12.994 3.743 4.442
128 1 4.933 10.233 0.482
129 2 4.529 4.877 12.937
130 2 4.697 5.062 14.547
131 2 14.689 4.590 14.316
132 2 0.095 3.637 13.626
133 2 7.742 10.075 4.249
134 2 8.993 10.723 3.347
135 2 0.789 4.729 4.534
136 2 1.811 3.952 3.777
137 2 14.401 11.925 10.457
138 2 13.907 10.727 11.365
139 2 10.673 0.202 0.766
140 2 9.474 0.653 -0.063
141 2 13.592 9.976 6.765
142 2 13.215 10.546 5.326
143 2 3.678 14.096 8.749
144 2 3.539 14.384 7.279
145 2 3.096 5.460 2.782
146 2 3.605 6.193 4.099
147 2 5.090 9.055 1.762
148 2 4.542 7.798 2.531
149 2 13.438 6.679 2.590
150 2 14.736 6.253 1.795
151 2 0.775 9.183 14.244
152 2 0.388 10.629 14.923
153 2 14.189 4.920 4.565
154 2 14.923 6.411 4.601
155 2 10.876 5.938 7.617
156 2 9.589 6.534 7.207
157 2 12.101 7.065 4.811
158 2 11.583 7.276 3.483
159 2 9.707 3.062 7.625
160 2 9.962 3.353 6.078
161 2 3.891 3.515 11.556
162 2 5.316 3.635 11.091
163 2 8.363 9.810 10.990
164 2 7.919 11.262 11.311
165 2 7.803 2.564 14.935
166 2 7.582 1.219 14.132
167 2 6.105 13.542 -0.242
168 2 4.860 13.825 0.528
169 2 14.410 13.815 10.162
170 2 -0.070 13.442 11.197
171 2 11.709 2.106 6.547
172 2 12.696 1.184 5.891
173 2 10.992 7.530 13.351
174 2 11.264 8.012 14.727
175 2 1.577 7.899 5.713
176 2 1.871 8.367 7.166
177 2 11.430 9.712 6.207
178 2 10.349 10.129 5.113
179 2 14.415 8.445 5.045
180 2 0.002 8.817 4.038
181 2 1.028 11.819 4.674
182 2 2.362 10.867 4.795
183 2 6.328 0.735 10.265
184 2 5.220 -0.301 10.649
185 2 12.568 9.372 0.310
186 2 12.863 7.958 0.825
187 2 2.564 7.413 12.011
188 2 3.142 6.419 13.094
189 2 3.167 6.413 5.981
190 2 3.102 4.983 5.632
191 2 7.735 13.158 8.338
192 2 8.061 12.612 6.879
193 2 1.754 3.381 1.756
194 2 3.251 3.173 2.472
195 2 3.150 12.641 14.976
196 2 3.168 12.957 0.984
197 2 0.072 5.373 6.527
198 2 -0.245 6.340 7.617
199 2 11.651 14.857 8.358
200 2 11.802 13.913 7.238
201 2 2.078 14.341 2.562
202 2 1.506 0.044 2.084
203 2 6.397 14.926 13.449
204 2 6.205 0.425 12.427
205 2 0.661 9.132 1.857
206 2 0.694 10.391 2.873
207 2 12.371 14.097 13.092
208 2 12.184 12.523 13.366
209 2 2.092 12.560 7.874
210 2 0.902 12.227 8.804
211 2 13.698 0.109 0.336
212 2 13.444 14.339 15.279
213 2 14.538 15.208 4.936
214 2 0.228 14.979 4.131
215 2 9.248 13.453 11.622
216 2 9.520 12.242 12.539
217 2 12.875 7.301 7.444
218 2 13.129 6.093 6.708
219 2 8.704 11.223 8.319
220 2 9.677 10.294 7.515
221 2 10.495 10.293 12.712
222 2 10.033 10.771 14.141
223 2 9.871 13.096 5.574
224 2 8.951 12.011 4.936
225 2 4.743 0.928 14.257
226 2 3.489 1.812 13.898
227 2 7.564 13.102 13.199
228 2 6.026 12.678 13.243
229 2 3.655 5.648 8.887
230 2 4.530 5.657 10.112
231 2 10.748 -0.065 13.766
232 2 11.781 0.809 13.078
233 2 8.365 -0.292 3.466
234 2 8.348 14.007 4.251
235 2 5.109 1.818 2.951
236 2 4.641 2.960 4.038
237 2 12.534 11.042 9.221
238 2 11.184 11.210 8.494
239 2 8.607 10.312 0.577
240 2 8.695 11.788 0.058
241 2 1.423 1.683 7.505
242 2 1.610 2.657 8.733
243 2 8.880 5.119 12.165
244 2 8.030 6.407 12.150
245 2 1.953 8.952 9.169
246 2 1.280 10.157 8.305
247 2 11.263 11.240 2.796
248 2 10.796 9.705 2.724
249 2 11.565 5.403 -0.288
250 2 11.190 4.326 14.256
251 2 10.420 6.657 9.627
252 2 10.261 6.463 11.057
253 2 5.876 10.177 10.590
254 2 4.944 10.814 9.469
255 2 7.918 7.693 0.604
256 2 7.178 8.740 1.635
257 2 14.201 7.926 9.360
258 2 -0.268 8.441 8.553
259 2 6.164 14.392 3.813
260 2 4.759 14.008 3.263
261 2 6.351 1.603 6.909
262 2 4.843 1.754 6.762
263 2 1.341 0.662 9.630
264 2 0.818 14.775 10.058
265 2 10.834 13.034 1.109
266 2 12.250 13.579 1.431
267 2 7.992 4.933 10.043
268 2 8.592 4.875 8.558
269 2 -0.086 13.503 5.645
270 2 0.006 12.174 6.563
271 2 6.048 11.685 7.842
272 2 4.650 12.257 7.875
273 2 -0.108 7.214 14.442
274 2 1.409 7.209 13.861
275 2 1.109 5.198 12.130
276 2 0.142 4.184 11.411
277 2 0.192 0.570 11.825
278 2 0.262 0.216 13.323
279 2 13.325 12.966 5.769
280 2 12.474 12.181 6.791
281 2 6.965 1.340 0.725
282 2 6.228 -0.017 1.148
283 2 5.284 6.954 7.957
284 2 5.697 8.443 7.794
285 2 4.597 2.963 -0.156
286 2 4.058 3.833 1.061
287 2 14.262 2.204 0.862
288 2 14.796 2.025 15.101
289 2 7.907 0.984 2.420
290 2 8.425 2.086 3.235
291 2 9.338 3.309 9.833
292 2 10.175 1.881 10.112
293 2 1.754 4.527 9.909
294 2 1.116 4.790 8.543
295 2 12.264 0.087 4.080
296 2 12.033 14.644 5.151
297 2 9.971 5.304 5.022
298 2 9.516 4.309 3.951
299 2 9.112 6.414 14.788
300 2 7.576 6.540 14.599
301 2 2.072 2.926 11.945
302 2 2.699 1.524 11.845
303 2 10.850 14.381 10.464
304 2 10.512 -0.207 11.478
305 2 0.274 12.772 0.619
306 2 0.108 11.229 1.222
307 2 9.707 2.844 13.327
308 2 10.313 3.499 12.113
309 2 7.167 3.939 3.637
310 2 7.690 3.774 2.124
311 2 2.781 12.234 3.341
312 2 4.175 12.108 2.657
313 2 13.425 2.637 7.765
314 2 14.488 3.852 7.855
315 2 1.166 7.506 0.685
316 2 1.807 6.949 2.017
317 2 14.431 9.588 13.243
318 2 13.019 10.034 13.469
319 2 5.701 2.571 8.685
320 2 6.808 3.052 9.529
321 2 5.358 4.808 5.125
322 2 5.969 3.536 5.718
323 2 13.085 2.744 13.367
324 2 13.871 1.600 12.701
325 2 8.544 7.168 5.285
326 2 9.763 8.118 5.621
327 2 3.581 7.580 10.065
328 2 3.762 9.057 10.338
329 2 4.558 11.888 11.324
330 2 3.564 12.075 12.535
331 2 0.335 11.797 12.600
332 2 0.248 12.884 13.592
333 2 6.357 8.228 5.654
334 2 6.385 8.128 4.021
335 2 10.214 9.586 10.069
336 2 10.664 8.574 11.128
337 2 8.952 14.886 9.644
338 2 7.358 14.754 9.710
339 2 0.592 15.069 0.018
340 2 1.702 14.370 14.772
341 2 6.474 3.892 0.307
342 2 7.891 4.743 0.474
343 2 13.774 5.254 11.174
344 2 12.641 6.360 11.164
345 2 6.612 10.307 13.171
346 2 7.383 10.202 14.429
347 2 5.930 6.533 13.314
348 2 6.651 8.008 13.490
349 2 4.151 10.906 6.582
350 2 3.726 9.438 6.280
351 2 0.961 1.053 5.339
352 2 1.480 2.492 5.405
353 2 8.710 13.453 1.932
354 2 8.996 13.780 0.520
355 2 3.285 0.710 5.895
356 2 4.523 -0.106 5.187
357 2 10.896 8.125 1.553
358 2 9.392 8.099 2.001
359 2 2.856 14.801 10.606
360 2 3.903 13.742 11.045
361 2 6.487 12.694 1.545
362 2 7.040 11.682 2.678
363 2 2.247 10.738 14.326
364 2 3.668 10.677 14.824
365 2 12.348 3.694 0.972
366 2 13.292 3.834 2.196
367 2 12.507 12.806 9.606
368 2 12.535 13.311 11.142
369 2 13.951 6.558 12.900
370 2 13.446 7.113 14.386
371 2 11.833 1.458 2.051
372 2 10.438 0.894 2.529
373 2 0.844 1.546 0.605
374 2 2.398 1.383 0.478
375 2 7.779 0.123 7.665
376 2 8.602 1.235 6.920
377 2 12.412 11.510 0.551
378 2 13.930 11.279 0.187
379 2 13.826 3.479 9.960
380 2 13.518 3.173 11.506
381 2 12.967 3.112 5.238
382 2 12.091 4.059 4.295
383 2 5.484 10.770 1.071
384 2 5.475 10.050 -0.287
ITEM: TIMESTEP
500
ITEM: NUMBER OF ATOMS
384
ITEM: BOX BOUNDS pp pp pp
-5.8356156660189917e-01 1.5583561566601935e+01
-5.8356156660189917e-01 1.5583561566601935e+01
-5.8356156660189917e-01 1.5583561566601935e+01
ITEM: ATOMS id type x y z
1 1 4.192 5.691 13.583
2 1 15.102 3.843 14.511
3 1 7.135 10.740 3.404
4 1 1.526 3.237 4.269
5 1 14.758 9.715 10.779
6 1 10.002 -0.230 -0.200
7 1 14.176 10.203 6.055
8 1 3.505 13.809 8.234
9 1 2.669 6.238 2.458
10 1 5.490 7.382 1.982
11 1 14.302 6.538 2.029
12 1 0.121 10.751 14.668
13 1 -0.589 4.928 5.086
14 1 9.934 6.386 8.310
15 1 12.557 6.538 4.521
16 1 10.941 2.336 7.002
17 1 4.415 3.909 11.302
18 1 7.409 10.730 11.598
19 1 8.578 1.926 15.389
20 1 5.746 13.907 0.318
21 1 -0.228 14.374 10.270
22 1 13.177 1.698 5.716
23 1 10.375 7.815 13.638
24 1 2.347 7.750 6.380
25 1 11.415 9.332 5.655
26 1 15.579 7.722 4.804
27 1 1.891 11.532 4.941
28 1 5.851 0.420 10.581
29 1 12.560 7.462 0.212
30 1 1.650 6.938 13.126
31 1 3.327 5.204 5.007
32 1 8.257 12.277 7.907
33 1 2.946 3.562 1.721
34 1 2.926 13.395 -0.389
35 1 -0.028 5.130 7.782
36 1 11.109 15.282 6.792
37 1 1.496 15.122 2.194
38 1 6.125 0.847 13.534
39 1 -0.272 10.366 3.375
40 1 12.521 13.537 12.268
41 1 1.029 12.618 8.222
42 1 15.488 15.197 0.445
43 1 -0.481 14.967 4.234
44 1 8.284 13.357 11.861
45 1 12.771 6.257 7.314
46 1 10.565 10.475 8.136
47 1 10.736 11.622 12.729
48 1 8.157 12.809 5.100
49 1 3.766 1.607 14.422
50 1 6.261 14.123 13.570
51 1 3.987 6.183 9.067
52 1 11.359 0.068 13.198
53 1 7.417 15.211 3.484
54 1 4.167 2.009 3.522
55 1 13.457 11.168 8.734
56 1 9.430 10.543 -0.653
57 1 2.440 1.845 8.505
58 1 8.383 5.013 11.948
59 1 0.970 9.589 8.664
60 1 10.332 10.293 3.673
61 1 11.840 4.454 14.621
62 1 9.778 6.999 10.943
63 1 5.019 10.583 10.174
64 1 8.382 7.177 1.710
65 1 14.902 7.647 8.578
66 1 4.530 14.972 3.816
67 1 6.078 1.031 6.578
68 1 1.739 0.287 10.515
69 1 11.080 12.440 2.035
70 1 8.450 4.241 9.134
71 1 15.236 12.669 5.947
72 1 5.516 11.662 7.526
73 1 -0.050 8.110 14.942
74 1 0.303 4.625 12.167
75 1 14.961 0.276 12.738
76 1 12.348 12.911 5.915
77 1 5.331 0.613 1.327
78 1 5.799 8.306 7.522
79 1 4.605 3.949 -0.335
80 1 15.240 1.965 0.210
81 1 8.481 1.577 2.882
82 1 10.918 2.557 10.138
83 1 1.984 4.469 9.323
84 1 12.865 15.343 3.619
85 1 10.013 4.428 5.379
86 1 8.630 6.179 15.205
87 1 2.266 2.475 12.401
88 1 10.738 -0.415 10.544
89 1 15.079 11.895 1.090
90 1 9.886 2.999 13.112
91 1 7.817 4.056 3.461
92 1 2.771 12.623 2.429
93 1 14.529 2.855 8.814
94 1 0.699 8.081 1.730
95 1 13.875 10.235 13.401
96 1 6.314 2.800 8.934
97 1 5.780 3.776 5.276
98 1 13.126 2.428 12.929
99 1 9.095 7.582 6.062
100 1 2.967 8.374 10.502
101 1 4.174 12.391 12.215
102 1 0.597 12.572 12.384
103 1 6.685 8.529 4.878
104 1 9.860 9.920 10.910
105 1 8.178 15.005 9.818
106 1 0.914 14.442 14.311
107 1 7.488 4.052 0.529
108 1 12.706 6.658 11.449
109 1 7.151 9.647 14.094
110 1 6.718 6.899 13.222
111 1 3.928 10.021 5.610
112 1 1.200 1.014 5.993
113 1 8.647 13.454 1.103
114 1 3.549 -0.412 6.254
115 1 11.101 7.947 2.554
116 1 3.824 14.970 10.584
117 1 5.214 11.518 1.547
118 1 2.975 11.143 14.569
119 1 12.900 3.064 1.210
120 1 13.099 14.100 9.637
121 1 13.795 6.643 14.266
122 1 11.242 1.208 2.208
123 1 1.913 1.461 0.457
124 1 9.008 0.198 5.566
125 1 12.336 10.431 0.175
126 1 13.949 4.291 11.190
127 1 13.167 3.761 4.270
128 1 4.801 9.539 -0.259
129 2 4.416 5.144 12.791
130 2 4.335 5.102 14.322
131 2 14.625 4.752 14.517
132 2 15.726 3.986 13.774
133 2 6.798 9.893 3.866
134 2 7.789 10.373 2.815
135 2 0.746 3.848 4.421
136 2 1.708 3.209 3.297
137 2 -0.482 9.869 10.603
138 2 14.510 9.878 11.728
139 2 10.716 -0.074 0.467
140 2 9.464 0.581 -0.182
141 2 14.156 10.429 6.999
142 2 14.605 10.899 5.542
143 2 3.724 14.189 9.099
144 2 3.696 14.531 7.578
145 2 2.578 5.458 1.857
146 2 2.991 5.832 3.241
147 2 5.197 7.960 1.247
148 2 4.793 6.741 2.026
149 2 13.803 6.709 2.815
150 2 15.073 7.123 1.966
151 2 -0.022 9.753 14.647
152 2 -0.265 11.047 15.543
153 2 14.691 4.602 4.847
154 2 15.581 5.904 4.919
155 2 10.897 6.399 8.208
156 2 9.613 7.141 7.739
157 2 12.468 7.089 5.234
158 2 11.776 6.852 3.937
159 2 11.170 2.716 7.899
160 2 10.457 2.933 6.427
161 2 3.800 3.236 11.649
162 2 4.672 3.608 10.360
163 2 8.141 10.125 11.348
164 2 7.752 11.609 11.622
165 2 8.397 2.757 -0.330
166 2 7.759 1.696 14.882
167 2 6.175 13.829 -0.559
168 2 4.837 14.065 -0.023
169 2 15.020 14.164 9.907
170 2 0.163 13.664 10.826
171 2 12.242 1.877 6.125
172 2 12.931 0.970 5.082
173 2 10.083 7.483 12.810
174 2 11.341 7.928 13.623
175 2 1.613 8.210 5.955
176 2 1.982 7.877 7.315
177 2 12.328 9.675 5.747
178 2 10.889 9.944 5.049
179 2 14.961 8.396 5.191
180 2 -0.317 8.014 3.940
181 2 1.828 12.205 5.663
182 2 2.582 10.923 5.333
183 2 5.990 1.300 10.081
184 2 5.011 -0.096 10.369
185 2 12.584 8.453 0.305
186 2 13.222 7.111 0.923
187 2 1.917 7.418 12.314
188 2 2.577 6.611 13.446
189 2 2.765 5.777 5.463
190 2 2.910 4.356 4.882
191 2 8.433 13.161 8.296
192 2 8.243 12.450 6.897
193 2 2.446 2.983 1.165
194 2 3.502 3.085 2.371
195 2 3.085 12.574 15.250
196 2 2.483 13.016 0.404
197 2 -0.209 5.063 6.816
198 2 15.600 5.840 8.238
199 2 11.750 15.572 7.423
200 2 11.470 14.454 6.498
201 2 1.762 14.162 2.343
202 2 2.141 -0.445 2.527
203 2 6.351 -0.118 13.559
204 2 6.074 0.933 12.565
205 2 0.238 9.822 2.705
206 2 0.386 10.776 4.025
207 2 12.204 14.425 12.599
208 2 11.801 12.832 12.357
209 2 2.002 12.985 8.179
210 2 0.650 13.350 8.724
211 2 0.191 15.099 0.908
212 2 15.364 -0.023 0.291
213 2 14.818 15.170 3.852
214 2 0.200 15.142 3.561
215 2 8.292 14.030 11.156
216 2 9.195 13.218 12.039
217 2 13.291 6.862 7.878
218 2 13.362 5.564 7.015
219 2 9.953 11.215 7.986
220 2 10.809 10.148 7.244
221 2 10.374 10.860 12.232
222 2 10.619 11.495 13.701
223 2 9.062 12.858 4.946
224 2 7.824 11.969 4.714
225 2 4.685 1.313 14.082
226 2 3.278 2.027 13.715
227 2 7.018 13.937 13.019
228 2 5.504 13.808 13.063
229 2 3.286 5.562 9.299
230 2 4.768 5.673 9.408
231 2 11.035 -0.138 14.089
232 2 12.177 0.598 13.277
233 2 7.777 -0.090 3.268
234 2 7.912 14.887 4.226
235 2 4.526 1.428 2.884
236 2 4.848 2.504 4.073
237 2 13.982 10.769 9.448
238 2 12.629 10.673 8.802
239 2 9.952 9.866 -0.161
240 2 9.295 11.336 -0.164
241 2 1.860 1.600 7.784
242 2 2.220 2.780 8.704
243 2 8.846 4.407 12.561
244 2 7.556 5.261 12.432
245 2 1.568 9.316 9.333
246 2 1.155 10.525 8.672
247 2 10.749 11.029 3.226
248 2 10.669 9.542 3.207
249 2 12.315 5.289 14.579
250 2 11.290 4.137 13.838
251 2 9.839 6.755 10.002
252 2 9.187 6.329 11.514
253 2 5.930 10.559 10.401
254 2 4.959 10.789 9.235
255 2 8.586 6.831 0.806
256 2 7.416 7.216 1.708
257 2 14.667 8.166 9.358
258 2 15.483 8.243 8.068
259 2 5.510 14.851 3.741
260 2 4.107 14.159 3.427
261 2 6.960 0.776 6.281
262 2 5.349 0.389 6.486
263 2 1.940 0.922 9.795
264 2 1.012 -0.351 10.156
265 2 10.272 12.804 1.619
266 2 11.438 13.144 2.546
267 2 8.622 4.445 10.071
268 2 8.809 4.989 8.686
269 2 15.611 13.267 5.302
270 2 -0.300 12.481 6.664
271 2 6.464 11.939 7.663
272 2 5.127 12.551 7.570
273 2 15.284 7.615 14.666
274 2 0.633 7.702 14.352
275 2 0.778 5.417 12.285
276 2 -0.531 4.790 11.760
277 2 15.158 -0.390 11.999
278 2 15.762 0.185 13.297
279 2 13.330 12.969 6.062
280 2 12.049 12.178 6.467
281 2 4.934 0.829 0.453
282 2 5.686 -0.302 1.136
283 2 5.186 7.555 7.625
284 2 5.879 8.730 8.394
285 2 4.415 3.244 15.245
286 2 4.032 3.829 0.504
287 2 14.431 2.064 0.699
288 2 15.123 2.444 15.578
289 2 8.224 1.677 1.979
290 2 8.214 2.470 3.258
291 2 10.123 3.035 9.917
292 2 10.902 1.627 9.932
293 2 1.570 4.425 10.219
294 2 1.225 4.641 8.638
295 2 12.205 -0.275 3.165
296 2 12.378 14.936 4.343
297 2 9.712 5.322 5.707
298 2 9.416 4.290 4.651
299 2 9.377 6.354 14.623
300 2 7.905 6.592 14.734
301 2 1.486 3.087 12.464
302 2 1.920 1.696 11.893
303 2 11.330 15.018 10.322
304 2 10.693 -0.378 11.527
305 2 14.852 12.824 1.378
306 2 15.311 11.446 1.928
307 2 9.564 2.430 13.908
308 2 10.413 2.367 12.618
309 2 6.910 4.212 4.051
310 2 7.659 4.526 2.597
311 2 2.419 12.203 3.238
312 2 3.629 12.231 2.224
313 2 14.118 2.356 8.172
314 2 15.117 3.495 8.311
315 2 0.577 7.925 0.763
316 2 1.428 7.496 2.043
317 2 14.694 10.603 13.777
318 2 13.260 10.910 13.391
319 2 6.145 2.464 8.041
320 2 7.042 3.446 9.002
321 2 4.992 4.251 5.627
322 2 5.988 3.052 5.985
323 2 13.485 3.068 13.561
324 2 13.888 1.792 12.861
325 2 8.208 7.952 5.842
326 2 9.734 8.184 5.653
327 2 3.353 7.670 9.952
328 2 3.613 9.147 10.516
329 2 4.420 11.710 11.577
330 2 3.720 11.896 12.916
331 2 0.055 12.023 12.931
332 2 0.913 13.267 12.974
333 2 5.926 8.919 5.319
334 2 6.292 7.911 4.253
335 2 9.814 10.168 9.948
336 2 9.904 8.873 10.947
337 2 8.980 15.493 9.779
338 2 7.394 -0.565 9.839
339 2 0.253 14.384 14.997
340 2 1.728 14.182 14.835
341 2 6.540 4.249 0.283
342 2 8.000 4.759 0.099
343 2 13.188 5.829 11.269
344 2 11.743 6.473 11.298
345 2 7.215 10.242 13.339
346 2 7.929 9.768 14.636
347 2 5.755 6.657 13.396
348 2 6.684 7.876 13.195
349 2 4.361 10.403 6.390
350 2 3.431 9.206 5.897
351 2 0.574 0.410 5.603
352 2 1.342 1.850 5.470
353 2 7.936 13.686 1.738
354 2 8.911 14.220 0.575
355 2 2.611 -0.106 6.216
356 2 3.856 15.540 5.322
357 2 11.453 7.812 1.652
358 2 10.209 7.555 2.556
359 2 3.011 15.504 10.734
360 2 3.931 14.281 11.259
361 2 5.484 12.378 1.207
362 2 5.958 11.150 2.031
363 2 2.085 10.807 14.417
364 2 3.440 10.336 14.986
365 2 12.653 3.334 0.324
366 2 13.251 3.832 1.576
367 2 13.289 13.334 9.053
368 2 12.992 13.723 10.568
369 2 13.430 6.657 13.353
370 2 13.250 7.081 14.940
371 2 11.556 2.076 1.864
372 2 10.255 1.321 2.284
373 2 0.997 1.658 0.262
374 2 2.490 1.470 -0.377
375 2 9.745 -0.020 6.136
376 2 9.196 0.687 4.773
377 2 11.843 10.989 0.773
378 2 13.051 11.000 -0.143
379 2 14.127 3.658 10.466
380 2 13.455 3.739 11.876
381 2 13.207 2.908 4.724
382 2 12.405 4.170 4.687
383 2 5.076 10.219 0.442
384 2 5.547 9.509 15.216
ITEM: TIMESTEP
1000
ITEM: NUMBER OF ATOMS
384
ITEM: BOX BOUNDS pp pp pp
-6.0635276022269124e-01 1.5606352760222727e+01
-6.0635276022269124e-01 1.5606352760222727e+01
-6.0635276022269124e-01 1.5606352760222727e+01
ITEM: ATOMS id type x y z
1 1 4.385 5.675 13.182
2 1 15.492 4.015 14.476
3 1 7.127 10.791 4.168
4 1 1.922 3.140 4.491
5 1 15.020 9.811 11.116
6 1 10.134 -0.112 15.057
7 1 13.959 10.245 6.138
8 1 4.378 13.143 7.525
9 1 2.937 6.401 2.965
10 1 5.509 7.395 2.537
11 1 14.433 7.160 2.322
12 1 -0.594 10.469 14.928
13 1 -0.117 5.629 4.807
14 1 9.932 6.135 7.986
15 1 11.753 6.264 5.178
16 1 11.455 1.720 7.111
17 1 4.206 3.727 10.996
18 1 7.309 10.592 12.124
19 1 8.082 1.539 14.107
20 1 5.297 13.781 0.281
21 1 0.459 13.792 9.694
22 1 13.801 2.173 5.243
23 1 10.135 8.468 14.580
24 1 2.014 7.652 6.856
25 1 11.097 10.217 5.693
26 1 -0.055 8.373 5.181
27 1 1.598 11.078 4.393
28 1 6.679 -0.030 10.495
29 1 12.379 8.565 1.116
30 1 1.535 6.981 12.684
31 1 3.614 5.542 5.702
32 1 8.288 13.047 7.829
33 1 2.644 3.998 1.750
34 1 2.404 13.145 15.444
35 1 15.478 5.207 7.696
36 1 11.019 15.438 6.093
37 1 1.211 0.104 2.895
38 1 5.847 0.312 13.046
39 1 0.154 9.872 2.535
40 1 12.606 13.292 12.461
41 1 1.443 12.192 7.787
42 1 -0.202 14.477 1.079
43 1 15.027 15.448 4.599
44 1 8.596 13.530 12.414
45 1 12.761 6.156 7.833
46 1 10.029 11.033 8.244
47 1 10.502 11.628 12.964
48 1 8.465 13.668 4.798
49 1 3.334 1.658 14.148
50 1 6.122 13.838 13.722
51 1 3.667 6.504 9.337
52 1 11.859 -0.231 12.976
53 1 7.142 14.839 2.339
54 1 4.217 1.950 2.654
55 1 13.170 11.365 8.992
56 1 10.272 11.022 -0.374
57 1 2.410 1.809 8.179
58 1 8.698 5.469 12.114
59 1 1.000 9.444 8.763
60 1 9.625 10.501 3.303
61 1 12.450 4.048 15.582
62 1 10.282 7.260 10.859
63 1 4.963 10.890 10.764
64 1 7.986 5.905 1.953
65 1 14.687 7.677 9.311
66 1 4.435 15.157 3.031
67 1 6.002 1.684 6.642
68 1 2.128 0.024 10.251
69 1 10.931 13.434 2.864
70 1 8.696 3.927 9.528
71 1 -0.323 12.494 5.595
72 1 6.050 11.079 7.976
73 1 0.404 7.809 15.129
74 1 0.296 4.673 11.727
75 1 15.332 0.326 11.976
76 1 12.664 13.206 6.347
77 1 5.704 0.305 0.393
78 1 5.241 8.151 7.239
79 1 3.867 4.145 15.315
80 1 15.097 1.109 -0.481
81 1 7.972 1.163 2.018
82 1 11.112 2.562 10.618
83 1 1.762 4.584 8.568
84 1 12.465 -0.492 3.768
85 1 9.727 3.910 5.349
86 1 9.012 5.852 -0.583
87 1 1.995 2.376 11.917
88 1 11.640 -0.135 9.938
89 1 15.013 11.723 0.943
90 1 10.092 3.381 13.176
91 1 8.011 3.528 3.435
92 1 2.991 12.313 2.139
93 1 13.659 2.135 8.826
94 1 0.789 7.579 1.554
95 1 13.642 10.688 13.111
96 1 6.405 2.487 9.398
97 1 5.674 3.528 4.823
98 1 13.587 1.920 13.288
99 1 9.395 7.763 6.069
100 1 2.796 8.890 10.825
101 1 4.039 12.741 12.367
102 1 -0.005 12.819 12.511
103 1 7.009 8.247 4.948
104 1 9.664 9.937 10.972
105 1 8.970 14.649 9.890
106 1 0.526 14.983 14.356
107 1 6.754 3.347 -0.158
108 1 12.725 6.720 12.479
109 1 7.048 9.385 14.478
110 1 6.824 6.600 13.642
111 1 3.189 10.433 6.315
112 1 1.578 0.682 5.802
113 1 9.169 13.708 0.346
114 1 4.228 15.518 5.933
115 1 10.210 7.863 2.721
116 1 4.234 14.280 9.972
117 1 5.732 11.288 1.838
118 1 2.678 10.684 14.185
119 1 12.580 2.493 1.678
120 1 13.692 14.103 9.825
121 1 13.922 6.888 14.840
122 1 10.512 0.371 1.617
123 1 1.519 1.562 0.476
124 1 8.527 1.494 5.839
125 1 12.437 11.437 1.463
126 1 13.431 3.993 11.406
127 1 13.327 4.692 3.630
128 1 4.682 9.348 -0.234
129 2 4.471 5.066 12.424
130 2 4.037 5.146 13.919
131 2 15.150 4.899 14.735
132 2 -0.646 4.048 13.505
133 2 6.898 9.868 4.480
134 2 8.073 10.644 3.944
135 2 1.143 3.599 4.687
136 2 2.162 3.441 3.567
137 2 -0.467 10.409 11.312
138 2 14.349 10.016 11.819
139 2 10.338 0.132 -0.225
140 2 9.270 0.298 14.843
141 2 13.980 10.346 7.101
142 2 14.524 11.010 5.828
143 2 4.269 13.717 8.387
144 2 4.381 13.798 6.804
145 2 2.875 5.511 2.457
146 2 2.922 6.180 3.912
147 2 5.553 8.261 2.066
148 2 4.562 7.046 2.336
149 2 14.233 6.371 2.901
150 2 15.440 7.178 2.224
151 2 -0.189 9.601 15.243
152 2 15.477 11.089 -0.522
153 2 15.281 5.209 4.497
154 2 -0.386 6.603 4.796
155 2 10.875 5.826 7.882
156 2 9.542 6.567 7.202
157 2 12.060 6.617 6.014
158 2 11.186 6.952 4.810
159 2 12.140 1.951 7.776
160 2 10.972 2.403 6.619
161 2 3.725 2.949 11.381
162 2 4.897 3.327 10.434
163 2 8.095 10.190 11.716
164 2 7.574 11.523 12.043
165 2 7.696 1.868 14.890
166 2 7.361 1.069 13.690
167 2 5.910 13.656 15.758
168 2 4.520 13.346 -0.019
169 2 -0.492 13.705 9.587
170 2 0.419 13.446 10.630
171 2 13.178 1.890 5.871
172 2 13.889 1.337 4.790
173 2 10.757 8.072 13.907
174 2 10.484 9.101 15.199
175 2 1.330 7.778 6.201
176 2 1.852 8.142 7.685
177 2 12.112 10.170 5.700
178 2 10.847 10.636 4.862
179 2 15.323 8.743 5.544
180 2 0.145 9.026 4.443
181 2 0.940 11.557 4.927
182 2 2.160 10.692 5.098
183 2 6.839 0.853 10.043
184 2 5.815 -0.303 10.093
185 2 12.567 9.475 1.494
186 2 12.911 7.956 1.692
187 2 1.496 7.617 11.957
188 2 2.431 6.825 12.890
189 2 3.023 6.163 6.160
190 2 3.015 4.822 5.760
191 2 8.421 13.678 8.639
192 2 8.602 13.539 7.012
193 2 1.985 3.507 1.187
194 2 3.367 3.409 1.728
195 2 2.498 12.295 14.939
196 2 2.072 13.072 0.074
197 2 -0.424 5.424 6.797
198 2 15.308 6.042 8.229
199 2 11.083 -0.099 6.782
200 2 11.556 14.696 6.437
201 2 2.110 -0.260 3.013
202 2 1.281 0.796 2.110
203 2 5.879 -0.575 13.441
204 2 6.027 0.149 12.127
205 2 0.326 9.181 1.915
206 2 0.985 10.299 2.717
207 2 12.537 14.124 12.906
208 2 11.792 12.813 12.860
209 2 2.397 12.230 7.579
210 2 1.259 12.800 8.490
211 2 0.412 14.992 1.662
212 2 15.362 15.192 0.959
213 2 14.145 15.374 4.261
214 2 15.539 -0.457 3.846
215 2 8.764 13.773 11.488
216 2 9.267 12.848 12.750
217 2 13.355 6.856 8.219
218 2 13.395 5.533 7.502
219 2 9.612 11.919 7.997
220 2 10.323 10.718 7.332
221 2 10.318 10.936 12.227
222 2 10.381 11.115 13.786
223 2 9.254 13.180 4.652
224 2 7.809 12.980 5.016
225 2 4.104 1.500 13.607
226 2 2.694 2.042 13.495
227 2 6.914 13.736 13.191
228 2 5.321 13.562 13.215
229 2 3.051 6.127 8.617
230 2 3.919 5.674 9.757
231 2 11.074 -0.257 13.608
232 2 12.476 0.495 13.242
233 2 7.151 -0.407 2.217
234 2 7.659 14.658 3.142
235 2 4.813 1.161 2.503
236 2 4.773 2.475 3.311
237 2 13.647 10.970 9.745
238 2 12.206 11.209 9.110
239 2 11.129 11.261 0.036
240 2 9.682 11.743 -0.225
241 2 2.101 1.510 7.332
242 2 2.100 2.795 8.223
243 2 9.094 4.858 12.799
244 2 7.861 5.900 12.624
245 2 1.618 9.362 9.566
246 2 1.028 10.240 8.273
247 2 9.742 11.088 2.548
248 2 9.799 9.583 2.928
249 2 12.620 5.004 15.510
250 2 11.777 3.737 14.838
251 2 10.372 7.082 9.916
252 2 9.554 6.559 11.146
253 2 5.855 10.691 11.222
254 2 5.167 10.695 9.847
255 2 8.180 6.035 0.999
256 2 7.032 6.150 1.996
257 2 14.412 8.038 10.186
258 2 15.335 8.345 8.998
259 2 5.351 15.055 2.779
260 2 3.836 14.482 2.672
261 2 6.915 1.436 6.478
262 2 5.394 0.927 6.566
263 2 2.143 0.620 9.430
264 2 1.332 -0.538 10.000
265 2 10.439 13.585 1.998
266 2 11.435 14.297 3.010
267 2 8.734 4.204 10.483
268 2 8.868 4.770 8.956
269 2 -0.168 13.339 5.175
270 2 0.205 12.365 6.411
271 2 6.979 11.440 7.749
272 2 5.410 11.799 7.818
273 2 -0.556 7.583 14.950
274 2 0.828 7.386 14.373
275 2 0.695 5.571 11.808
276 2 -0.631 4.640 11.545
277 2 14.806 -0.252 11.434
278 2 -0.273 -0.216 12.504
279 2 13.611 13.356 6.104
280 2 12.801 12.531 7.034
281 2 4.963 0.684 -0.142
282 2 5.527 15.565 0.233
283 2 4.937 7.450 7.893
284 2 5.732 8.865 7.716
285 2 3.580 3.256 15.164
286 2 3.260 4.420 -0.178
287 2 14.377 1.231 0.174
288 2 15.218 1.923 15.220
289 2 7.439 1.576 1.273
290 2 8.158 1.973 2.666
291 2 10.262 2.965 10.328
292 2 11.185 1.740 10.060
293 2 2.062 4.591 9.523
294 2 0.796 4.807 8.554
295 2 11.943 0.144 3.253
296 2 11.977 -0.561 4.664
297 2 10.179 4.771 5.513
298 2 9.170 3.962 4.580
299 2 9.568 6.648 15.525
300 2 8.272 6.156 15.074
301 2 1.428 3.192 11.838
302 2 1.627 1.687 11.311
303 2 12.430 15.496 9.704
304 2 11.626 -0.181 10.914
305 2 15.290 12.552 1.346
306 2 15.411 11.047 1.541
307 2 9.301 2.898 13.400
308 2 10.470 2.922 12.429
309 2 7.236 3.496 4.043
310 2 7.929 4.313 2.860
311 2 2.542 11.996 2.946
312 2 3.751 11.768 1.951
313 2 14.327 2.859 8.670
314 2 13.457 2.294 9.748
315 2 0.695 7.560 0.565
316 2 1.669 7.408 1.950
317 2 14.368 10.640 13.761
318 2 13.194 11.562 13.105
319 2 6.276 2.313 8.470
320 2 7.169 3.156 9.403
321 2 5.267 4.244 5.379
322 2 5.750 2.826 5.515
323 2 13.732 2.300 14.176
324 2 14.321 1.339 13.057
325 2 8.593 7.881 5.560
326 2 9.687 8.689 6.155
327 2 3.218 8.130 10.385
328 2 3.521 9.592 10.923
329 2 4.316 11.949 11.758
330 2 3.278 12.450 12.844
331 2 15.254 12.780 12.632
332 2 0.251 13.512 13.150
333 2 6.290 8.053 5.622
334 2 6.657 7.789 4.132
335 2 9.644 10.209 10.026
336 2 9.928 9.036 10.908
337 2 9.878 15.051 9.786
338 2 8.376 15.391 10.175
339 2 -0.201 14.890 14.988
340 2 1.199 14.244 14.607
341 2 5.828 3.439 -0.154
342 2 7.225 4.198 -0.219
343 2 13.007 5.790 12.192
344 2 11.937 6.906 11.981
345 2 6.958 10.059 13.774
346 2 7.935 9.637 14.872
347 2 5.845 6.287 13.606
348 2 6.846 7.592 13.709
349 2 4.113 10.777 6.171
350 2 3.185 9.465 6.385
351 2 0.787 0.153 5.908
352 2 1.463 1.237 5.041
353 2 8.518 14.158 0.946
354 2 9.580 14.366 -0.187
355 2 3.322 -0.262 5.942
356 2 4.395 15.487 4.955
357 2 10.845 8.132 1.986
358 2 9.481 7.273 2.367
359 2 3.544 14.961 9.901
360 2 3.961 13.794 10.849
361 2 5.950 12.183 1.492
362 2 6.266 11.188 2.672
363 2 1.677 10.426 14.298
364 2 3.177 10.311 14.914
365 2 12.535 3.116 0.901
366 2 12.715 3.013 2.526
367 2 13.482 13.405 9.176
368 2 13.304 13.696 10.676
369 2 13.522 6.935 13.946
370 2 13.542 7.728 15.192
371 2 11.011 1.235 1.594
372 2 9.624 0.725 1.973
373 2 0.511 1.536 0.317
374 2 2.002 1.192 -0.320
375 2 9.218 0.884 5.516
376 2 8.670 2.392 5.675
377 2 11.975 12.163 1.945
378 2 13.362 11.758 1.392
379 2 12.725 3.865 10.768
380 2 13.223 3.367 12.092
381 2 13.660 4.009 4.171
382 2 12.720 5.269 4.209
383 2 4.612 10.077 0.440
384 2 5.637 9.362 15.622
ITEM: TIMESTEP
1500
ITEM: NUMBER OF ATOMS
384
ITEM: BOX BOUNDS pp pp pp
-5.7950846741656648e-01 1.5579508467416602e+01
-5.7950846741656648e-01 1.5579508467416602e+01
-5.7950846741656648e-01 1.5579508467416602e+01
ITEM: ATOMS id type x y z
1 1 4.086 5.644 12.833
2 1 15.358 4.300 14.293
3 1 7.517 11.500 3.858
4 1 0.964 3.755 4.349
5 1 14.341 9.810 10.665
6 1 9.745 -0.523 15.502
7 1 14.014 10.746 5.956
8 1 3.477 13.458 7.643
9 1 3.360 5.902 2.596
10 1 5.630 7.682 2.563
11 1 14.657 6.637 2.614
12 1 0.304 9.989 14.917
13 1 14.832 5.188 5.458
14 1 10.257 6.390 8.533
15 1 11.425 5.467 4.563
16 1 12.632 1.765 6.113